<?xml version="1.0" encoding="UTF-8"?>

<!-- generated on 2023-09-01 19:03:31 by Eclipse SUMO sumo Version 1.18.0
<configuration xmlns:xsi="http://www.w3.org/2001/XMLSchema-instance" xsi:noNamespaceSchemaLocation="http://sumo.dlr.de/xsd/sumoConfiguration.xsd">

    <input>
        <net-file value="gmdata.nosync/princess_rd_pt_experiments/run20/princess_rd_run20_net.net.xml"/>
        <route-files value="gmdata.nosync/princess_rd_pt_experiments/run20/princess_rd_run20_routes.rou.xml"/>
        <additional-files value="gmdata.nosync/princess_rd_pt_experiments/run20/princess_rd_run20_additional_config.xml,gmdata.nosync/princess_rd_pt_experiments/run20/princess_rd_run20_bus_stops.add.xml"/>
    </input>

    <output>
        <tripinfo-output value="gmdata.nosync/princess_rd_pt_experiments/run20/princess_rd_run20.tripinfo.xml"/>
    </output>

    <traci_server>
        <remote-port value="50606"/>
    </traci_server>

</configuration>
-->

<tripinfos xmlns:xsi="http://www.w3.org/2001/XMLSchema-instance" xsi:noNamespaceSchemaLocation="http://sumo.dlr.de/xsd/tripinfo_file.xsd">
    <tripinfo id="86296#15_1964" depart="3.00" departLane="edge76213_1" departPos="5.10" departSpeed="0.00" departDelay="0.56" arrival="13.00" arrivalLane="edge209481_1" arrivalPos="0.20" arrivalSpeed="5.64" duration="10.00" routeLength="69.74" waitingTime="0.00" waitingCount="0" stopTime="0.00" timeLoss="6.84" rerouteNo="0" devices="tripinfo_86296#15_1964" vType="DEFAULT_VEHTYPE" speedFactor="0.90" vaporized=""/>
    <tripinfo id="71164#11_4702" depart="5.00" departLane="edge11082_1" departPos="0.20" departSpeed="0.00" departDelay="0.03" arrival="13.00" arrivalLane="edge250009_1" arrivalPos="46.07" arrivalSpeed="15.51" duration="8.00" routeLength="59.83" waitingTime="0.00" waitingCount="0" stopTime="0.00" timeLoss="5.29" rerouteNo="0" devices="tripinfo_71164#11_4702" vType="DEFAULT_VEHTYPE" speedFactor="1.05" vaporized=""/>
    <tripinfo id="34047#2_5197" depart="6.00" departLane="edge245928_1" departPos="5.10" departSpeed="0.00" departDelay="0.73" arrival="14.00" arrivalLane="edge68874_1" arrivalPos="38.13" arrivalSpeed="15.35" duration="8.00" routeLength="63.58" waitingTime="0.00" waitingCount="0" stopTime="0.00" timeLoss="5.56" rerouteNo="0" devices="tripinfo_34047#2_5197" vType="DEFAULT_VEHTYPE" speedFactor="1.00" vaporized=""/>
    <tripinfo id="27638#1_5837" depart="8.00" departLane="edge181241_1" departPos="5.10" departSpeed="0.00" departDelay="2.33" arrival="14.00" arrivalLane="edge176427_1" arrivalPos="13.00" arrivalSpeed="11.94" duration="6.00" routeLength="33.41" waitingTime="0.00" waitingCount="0" stopTime="0.00" timeLoss="4.66" rerouteNo="0" devices="tripinfo_27638#1_5837" vType="DEFAULT_VEHTYPE" speedFactor="1.01" vaporized=""/>
    <tripinfo id="19384#4_1011" depart="1.00" departLane="edge204240_1" departPos="5.10" departSpeed="0.00" departDelay="0.12" arrival="15.00" arrivalLane="edge15527_1" arrivalPos="16.17" arrivalSpeed="10.35" duration="14.00" routeLength="114.84" waitingTime="0.00" waitingCount="0" stopTime="0.00" timeLoss="10.90" rerouteNo="0" devices="tripinfo_19384#4_1011" vType="DEFAULT_VEHTYPE" speedFactor="1.07" vaporized=""/>
    <tripinfo id="19456#14_35" depart="0.00" departLane="edge140826_1" departPos="5.10" departSpeed="0.00" departDelay="0.00" arrival="16.00" arrivalLane="edge89484_1" arrivalPos="83.15" arrivalSpeed="19.49" duration="16.00" routeLength="147.92" waitingTime="0.00" waitingCount="0" stopTime="0.00" timeLoss="9.42" rerouteNo="0" devices="tripinfo_19456#14_35" vType="DEFAULT_VEHTYPE" speedFactor="0.97" vaporized=""/>
    <tripinfo id="30581#1_17759" depart="11.00" departLane="edge247172_1" departPos="5.10" departSpeed="0.00" departDelay="0.03" arrival="16.00" arrivalLane="edge14806_1" arrivalPos="21.41" arrivalSpeed="11.33" duration="5.00" routeLength="26.87" waitingTime="0.00" waitingCount="0" stopTime="0.00" timeLoss="3.95" rerouteNo="0" devices="tripinfo_30581#1_17759" vType="DEFAULT_VEHTYPE" speedFactor="0.94" vaporized=""/>
    <tripinfo id="100488#1_683" depart="0.00" departLane="edge205969_1" departPos="5.10" departSpeed="0.00" departDelay="0.00" arrival="18.00" arrivalLane="edge68874_1" arrivalPos="38.13" arrivalSpeed="12.20" duration="18.00" routeLength="116.16" waitingTime="1.00" waitingCount="1" stopTime="0.00" timeLoss="13.61" rerouteNo="0" devices="tripinfo_100488#1_683" vType="DEFAULT_VEHTYPE" speedFactor="1.09" vaporized=""/>
    <tripinfo id="33250#6_756" depart="1.00" departLane="edge192157_1" departPos="5.10" departSpeed="0.00" departDelay="0.74" arrival="18.00" arrivalLane="edge204197_1" arrivalPos="82.98" arrivalSpeed="19.97" duration="17.00" routeLength="208.80" waitingTime="0.00" waitingCount="0" stopTime="0.00" timeLoss="5.76" rerouteNo="0" devices="tripinfo_33250#6_756" vType="DEFAULT_VEHTYPE" speedFactor="1.00" vaporized=""/>
    <tripinfo id="30901#1_4097" depart="5.00" departLane="edge204240_1" departPos="5.10" departSpeed="0.00" departDelay="0.48" arrival="18.00" arrivalLane="edge50909_1" arrivalPos="28.75" arrivalSpeed="11.83" duration="13.00" routeLength="90.53" waitingTime="0.00" waitingCount="0" stopTime="0.00" timeLoss="8.84" rerouteNo="0" devices="tripinfo_30901#1_4097" vType="DEFAULT_VEHTYPE" speedFactor="0.95" vaporized=""/>
    <tripinfo id="32424#24_6046" depart="6.00" departLane="edge187638_1" departPos="5.10" departSpeed="0.00" departDelay="0.21" arrival="18.00" arrivalLane="edge255854_1" arrivalPos="24.53" arrivalSpeed="19.84" duration="12.00" routeLength="124.65" waitingTime="0.00" waitingCount="0" stopTime="0.00" timeLoss="5.05" rerouteNo="0" devices="tripinfo_32424#24_6046" vType="DEFAULT_VEHTYPE" speedFactor="0.99" vaporized=""/>
    <tripinfo id="31900#1_6477" depart="7.00" departLane="edge198299_1" departPos="5.10" departSpeed="0.00" departDelay="0.98" arrival="18.00" arrivalLane="edge250429_1" arrivalPos="59.25" arrivalSpeed="18.95" duration="11.00" routeLength="92.90" waitingTime="0.00" waitingCount="0" stopTime="0.00" timeLoss="5.55" rerouteNo="0" devices="tripinfo_31900#1_6477" vType="DEFAULT_VEHTYPE" speedFactor="1.02" vaporized=""/>
    <tripinfo id="32568#12_10919" depart="11.00" departLane="edge181241_1" departPos="5.10" departSpeed="0.00" departDelay="2.84" arrival="18.00" arrivalLane="edge128668_1" arrivalPos="0.28" arrivalSpeed="13.45" duration="7.00" routeLength="45.23" waitingTime="0.00" waitingCount="0" stopTime="0.00" timeLoss="5.40" rerouteNo="0" devices="tripinfo_32568#12_10919" vType="DEFAULT_VEHTYPE" speedFactor="1.08" vaporized=""/>
    <tripinfo id="71162#2_543" depart="0.00" departLane="edge211943_1" departPos="5.10" departSpeed="0.00" departDelay="0.00" arrival="20.00" arrivalLane="edge103_1" arrivalPos="76.57" arrivalSpeed="19.05" duration="20.00" routeLength="163.04" waitingTime="0.00" waitingCount="0" stopTime="0.00" timeLoss="9.18" rerouteNo="0" devices="tripinfo_71162#2_543" vType="DEFAULT_VEHTYPE" speedFactor="1.05" vaporized=""/>
    <tripinfo id="46176#2_1688" depart="3.00" departLane="edge90738_1" departPos="5.10" departSpeed="0.00" departDelay="0.97" arrival="20.00" arrivalLane="edge85801_1" arrivalPos="78.46" arrivalSpeed="19.71" duration="17.00" routeLength="157.06" waitingTime="0.00" waitingCount="0" stopTime="0.00" timeLoss="11.20" rerouteNo="0" devices="tripinfo_46176#2_1688" vType="DEFAULT_VEHTYPE" speedFactor="1.18" vaporized=""/>
    <tripinfo id="34528#6_2091" depart="3.00" departLane="edge2921_1" departPos="5.10" departSpeed="0.00" departDelay="0.38" arrival="20.00" arrivalLane="edge104587_1" arrivalPos="128.15" arrivalSpeed="23.45" duration="17.00" routeLength="168.97" waitingTime="0.00" waitingCount="0" stopTime="0.00" timeLoss="10.29" rerouteNo="0" devices="tripinfo_34528#6_2091" vType="DEFAULT_VEHTYPE" speedFactor="0.93" vaporized=""/>
    <tripinfo id="84819#5_6846" depart="7.00" departLane="edge90512_1" departPos="5.10" departSpeed="0.00" departDelay="0.76" arrival="20.00" arrivalLane="edge141558_1" arrivalPos="0.20" arrivalSpeed="9.00" duration="13.00" routeLength="55.27" waitingTime="0.00" waitingCount="0" stopTime="0.00" timeLoss="9.80" rerouteNo="0" devices="tripinfo_84819#5_6846" vType="DEFAULT_VEHTYPE" speedFactor="1.05" vaporized=""/>
    <tripinfo id="31847#21_7337" depart="7.00" departLane="edge250424_1" departPos="5.10" departSpeed="0.00" departDelay="0.51" arrival="20.00" arrivalLane="edge250429_1" arrivalPos="59.25" arrivalSpeed="19.94" duration="13.00" routeLength="160.17" waitingTime="0.00" waitingCount="0" stopTime="0.00" timeLoss="4.38" rerouteNo="0" devices="tripinfo_31847#21_7337" vType="DEFAULT_VEHTYPE" speedFactor="1.03" vaporized=""/>
    <tripinfo id="32048#12_9238" depart="9.00" departLane="edge187638_1" departPos="5.10" departSpeed="0.00" departDelay="1.60" arrival="20.00" arrivalLane="edge255854_1" arrivalPos="24.53" arrivalSpeed="19.07" duration="11.00" routeLength="124.65" waitingTime="0.00" waitingCount="0" stopTime="0.00" timeLoss="3.82" rerouteNo="0" devices="tripinfo_32048#12_9238" vType="DEFAULT_VEHTYPE" speedFactor="0.98" vaporized=""/>
    <tripinfo id="71428#1_13899" depart="10.00" departLane="edge76213_1" departPos="5.10" departSpeed="0.00" departDelay="0.56" arrival="20.00" arrivalLane="edge209481_1" arrivalPos="0.20" arrivalSpeed="7.90" duration="10.00" routeLength="69.74" waitingTime="0.00" waitingCount="0" stopTime="0.00" timeLoss="7.06" rerouteNo="0" devices="tripinfo_71428#1_13899" vType="DEFAULT_VEHTYPE" speedFactor="1.09" vaporized=""/>
    <tripinfo id="34063#2_1130" depart="2.00" departLane="edge66379_1" departPos="5.10" departSpeed="0.00" departDelay="0.87" arrival="21.00" arrivalLane="edge74208_1" arrivalPos="78.30" arrivalSpeed="18.93" duration="19.00" routeLength="190.22" waitingTime="0.00" waitingCount="0" stopTime="0.00" timeLoss="14.16" rerouteNo="0" devices="tripinfo_34063#2_1130" vType="DEFAULT_VEHTYPE" speedFactor="1.02" vaporized=""/>
    <tripinfo id="87356#3_1829" depart="3.00" departLane="edge222555_1" departPos="5.10" departSpeed="0.00" departDelay="0.75" arrival="21.00" arrivalLane="edge222557_1" arrivalPos="48.66" arrivalSpeed="22.55" duration="18.00" routeLength="181.92" waitingTime="0.00" waitingCount="0" stopTime="0.00" timeLoss="10.36" rerouteNo="0" devices="tripinfo_87356#3_1829" vType="DEFAULT_VEHTYPE" speedFactor="1.02" vaporized=""/>
    <tripinfo id="32626#3_5147" depart="8.00" departLane="edge204240_1" departPos="5.10" departSpeed="0.00" departDelay="2.75" arrival="21.00" arrivalLane="edge50909_1" arrivalPos="28.75" arrivalSpeed="11.49" duration="13.00" routeLength="90.53" waitingTime="0.00" waitingCount="0" stopTime="0.00" timeLoss="8.74" rerouteNo="0" devices="tripinfo_32626#3_5147" vType="DEFAULT_VEHTYPE" speedFactor="0.92" vaporized=""/>
    <tripinfo id="29614#2_6839" depart="7.00" departLane="edge216100_1" departPos="5.10" departSpeed="0.00" departDelay="0.76" arrival="21.00" arrivalLane="edge253801_1" arrivalPos="71.88" arrivalSpeed="27.54" duration="14.00" routeLength="197.02" waitingTime="0.00" waitingCount="0" stopTime="0.00" timeLoss="6.66" rerouteNo="0" devices="tripinfo_29614#2_6839" vType="DEFAULT_VEHTYPE" speedFactor="0.92" vaporized=""/>
    <tripinfo id="71541#2_8770" depart="8.00" departLane="edge185971_1" departPos="0.20" departSpeed="0.00" departDelay="0.80" arrival="21.00" arrivalLane="edge240777_1" arrivalPos="41.61" arrivalSpeed="26.71" duration="13.00" routeLength="176.41" waitingTime="0.00" waitingCount="0" stopTime="0.00" timeLoss="7.14" rerouteNo="0" devices="tripinfo_71541#2_8770" vType="DEFAULT_VEHTYPE" speedFactor="1.02" vaporized=""/>
    <tripinfo id="31318#4_12881" depart="10.00" departLane="edge245907_1" departPos="5.10" departSpeed="0.00" departDelay="0.99" arrival="21.00" arrivalLane="edge218085_1" arrivalPos="61.95" arrivalSpeed="21.13" duration="11.00" routeLength="113.19" waitingTime="0.00" waitingCount="0" stopTime="0.00" timeLoss="8.04" rerouteNo="0" devices="tripinfo_31318#4_12881" vType="DEFAULT_VEHTYPE" speedFactor="0.90" vaporized=""/>
    <tripinfo id="19342#0_15853" depart="11.00" departLane="edge97741_1" departPos="5.10" departSpeed="0.00" departDelay="0.76" arrival="21.00" arrivalLane="edge97742_1" arrivalPos="20.35" arrivalSpeed="10.36" duration="10.00" routeLength="66.39" waitingTime="0.00" waitingCount="0" stopTime="0.00" timeLoss="7.02" rerouteNo="0" devices="tripinfo_19342#0_15853" vType="DEFAULT_VEHTYPE" speedFactor="0.82" vaporized=""/>
    <tripinfo id="71505#3_17287" depart="11.00" departLane="edge11111_1" departPos="5.10" departSpeed="0.00" departDelay="0.23" arrival="21.00" arrivalLane="edge194660_1" arrivalPos="72.11" arrivalSpeed="19.22" duration="10.00" routeLength="104.98" waitingTime="0.00" waitingCount="0" stopTime="0.00" timeLoss="5.50" rerouteNo="0" devices="tripinfo_71505#3_17287" vType="DEFAULT_VEHTYPE" speedFactor="1.12" vaporized=""/>
    <tripinfo id="18832#0_6" depart="3.00" departLane="edge205969_1" departPos="5.10" departSpeed="0.00" departDelay="3.00" arrival="22.00" arrivalLane="edge68874_1" arrivalPos="38.13" arrivalSpeed="11.97" duration="19.00" routeLength="116.16" waitingTime="0.00" waitingCount="0" stopTime="0.00" timeLoss="12.81" rerouteNo="0" devices="tripinfo_18832#0_6" vType="DEFAULT_VEHTYPE" speedFactor="0.89" vaporized=""/>
    <tripinfo id="33300#9_1564" depart="2.00" departLane="edge247192_1" departPos="5.10" departSpeed="0.00" departDelay="0.12" arrival="22.00" arrivalLane="edge15281_1" arrivalPos="37.98" arrivalSpeed="14.08" duration="20.00" routeLength="230.01" waitingTime="0.00" waitingCount="0" stopTime="0.00" timeLoss="10.61" rerouteNo="0" devices="tripinfo_33300#9_1564" vType="DEFAULT_VEHTYPE" speedFactor="0.98" vaporized=""/>
    <tripinfo id="71494#13_1951" depart="3.00" departLane="edge239888_1" departPos="0.20" departSpeed="0.00" departDelay="0.57" arrival="22.00" arrivalLane="edge239886_1" arrivalPos="44.62" arrivalSpeed="35.10" duration="19.00" routeLength="360.46" waitingTime="0.00" waitingCount="0" stopTime="0.00" timeLoss="8.85" rerouteNo="0" devices="tripinfo_71494#13_1951" vType="DEFAULT_VEHTYPE" speedFactor="1.20" vaporized=""/>
    <tripinfo id="34399#5_5152" depart="6.00" departLane="edge204337_1" departPos="0.20" departSpeed="0.00" departDelay="0.75" arrival="22.00" arrivalLane="edge84737_1" arrivalPos="121.55" arrivalSpeed="19.98" duration="16.00" routeLength="152.20" waitingTime="0.00" waitingCount="0" stopTime="0.00" timeLoss="6.48" rerouteNo="0" devices="tripinfo_34399#5_5152" vType="DEFAULT_VEHTYPE" speedFactor="1.02" vaporized=""/>
    <tripinfo id="25272#6_5312" depart="6.00" departLane="edge189754_1" departPos="5.10" departSpeed="0.00" departDelay="0.65" arrival="22.00" arrivalLane="edge255804_1" arrivalPos="66.31" arrivalSpeed="27.17" duration="16.00" routeLength="235.24" waitingTime="0.00" waitingCount="0" stopTime="0.00" timeLoss="7.09" rerouteNo="0" devices="tripinfo_25272#6_5312" vType="DEFAULT_VEHTYPE" speedFactor="0.95" vaporized=""/>
    <tripinfo id="20046#45_1892" depart="3.00" departLane="edge140825_1" departPos="5.10" departSpeed="0.00" departDelay="0.65" arrival="23.00" arrivalLane="edge89484_1" arrivalPos="83.15" arrivalSpeed="17.32" duration="20.00" routeLength="157.76" waitingTime="0.00" waitingCount="0" stopTime="0.00" timeLoss="12.04" rerouteNo="0" devices="tripinfo_20046#45_1892" vType="DEFAULT_VEHTYPE" speedFactor="1.03" vaporized=""/>
    <tripinfo id="65653#3_5045" depart="6.00" departLane="edge90738_1" departPos="5.10" departSpeed="0.00" departDelay="0.81" arrival="23.00" arrivalLane="edge60342_1" arrivalPos="66.07" arrivalSpeed="16.71" duration="17.00" routeLength="130.53" waitingTime="0.00" waitingCount="0" stopTime="0.00" timeLoss="11.15" rerouteNo="0" devices="tripinfo_65653#3_5045" vType="DEFAULT_VEHTYPE" speedFactor="0.96" vaporized=""/>
    <tripinfo id="37343#15_8201" depart="7.00" departLane="edge257556_1" departPos="5.10" departSpeed="0.00" departDelay="0.06" arrival="23.00" arrivalLane="edge257559_1" arrivalPos="31.02" arrivalSpeed="26.93" duration="16.00" routeLength="183.35" waitingTime="0.00" waitingCount="0" stopTime="0.00" timeLoss="8.69" rerouteNo="0" devices="tripinfo_37343#15_8201" vType="DEFAULT_VEHTYPE" speedFactor="0.93" vaporized=""/>
    <tripinfo id="33234#0_14569" depart="12.00" departLane="edge218087_1" departPos="5.10" departSpeed="0.00" departDelay="2.28" arrival="23.00" arrivalLane="edge204197_1" arrivalPos="82.98" arrivalSpeed="20.89" duration="11.00" routeLength="126.14" waitingTime="0.00" waitingCount="0" stopTime="0.00" timeLoss="4.84" rerouteNo="0" devices="tripinfo_33234#0_14569" vType="DEFAULT_VEHTYPE" speedFactor="1.09" vaporized=""/>
    <tripinfo id="87738#2_15331" depart="11.00" departLane="edge90511_1" departPos="5.10" departSpeed="0.00" departDelay="0.97" arrival="23.00" arrivalLane="edge47494_1" arrivalPos="67.38" arrivalSpeed="19.25" duration="12.00" routeLength="108.20" waitingTime="0.00" waitingCount="0" stopTime="0.00" timeLoss="7.68" rerouteNo="0" devices="tripinfo_87738#2_15331" vType="DEFAULT_VEHTYPE" speedFactor="0.90" vaporized=""/>
    <tripinfo id="32449#8_17420" depart="11.00" departLane="edge255850_1" departPos="5.10" departSpeed="0.00" departDelay="0.17" arrival="23.00" arrivalLane="edge2952_1" arrivalPos="86.39" arrivalSpeed="21.94" duration="12.00" routeLength="111.39" waitingTime="0.00" waitingCount="0" stopTime="0.00" timeLoss="5.60" rerouteNo="0" devices="tripinfo_32449#8_17420" vType="DEFAULT_VEHTYPE" speedFactor="1.13" vaporized=""/>
    <tripinfo id="54659#0_4287" depart="5.00" departLane="edge181241_1" departPos="5.10" departSpeed="0.00" departDelay="0.33" arrival="24.00" arrivalLane="edge90739_1" arrivalPos="8.74" arrivalSpeed="20.78" duration="19.00" routeLength="208.25" waitingTime="0.00" waitingCount="0" stopTime="0.00" timeLoss="12.37" rerouteNo="0" devices="tripinfo_54659#0_4287" vType="DEFAULT_VEHTYPE" speedFactor="1.18" vaporized=""/>
    <tripinfo id="30985#2_7588" depart="10.00" departLane="edge247192_1" departPos="5.10" departSpeed="0.00" departDelay="3.37" arrival="24.00" arrivalLane="edge63187_1" arrivalPos="19.90" arrivalSpeed="11.56" duration="14.00" routeLength="122.51" waitingTime="0.00" waitingCount="0" stopTime="0.00" timeLoss="8.31" rerouteNo="0" devices="tripinfo_30985#2_7588" vType="DEFAULT_VEHTYPE" speedFactor="0.93" vaporized=""/>
    <tripinfo id="19386#6_7653" depart="11.00" departLane="edge204240_1" departPos="5.10" departSpeed="0.00" departDelay="4.34" arrival="24.00" arrivalLane="edge50909_1" arrivalPos="28.75" arrivalSpeed="12.83" duration="13.00" routeLength="90.53" waitingTime="0.00" waitingCount="0" stopTime="0.00" timeLoss="8.91" rerouteNo="0" devices="tripinfo_19386#6_7653" vType="DEFAULT_VEHTYPE" speedFactor="0.97" vaporized=""/>
    <tripinfo id="71810#6_11304" depart="9.00" departLane="edge249992_1" departPos="5.10" departSpeed="0.00" departDelay="0.68" arrival="24.00" arrivalLane="edge223036_1" arrivalPos="62.14" arrivalSpeed="28.45" duration="15.00" routeLength="226.99" waitingTime="0.00" waitingCount="0" stopTime="0.00" timeLoss="6.68" rerouteNo="0" devices="tripinfo_71810#6_11304" vType="DEFAULT_VEHTYPE" speedFactor="0.96" vaporized=""/>
    <tripinfo id="31309#10_20732" depart="13.00" departLane="edge245907_1" departPos="5.10" departSpeed="0.00" departDelay="0.82" arrival="24.00" arrivalLane="edge218085_1" arrivalPos="61.95" arrivalSpeed="20.78" duration="11.00" routeLength="113.19" waitingTime="0.00" waitingCount="0" stopTime="0.00" timeLoss="8.46" rerouteNo="0" devices="tripinfo_31309#10_20732" vType="DEFAULT_VEHTYPE" speedFactor="0.98" vaporized=""/>
    <tripinfo id="18949#2_8" depart="6.00" departLane="edge205969_1" departPos="5.10" departSpeed="0.00" departDelay="6.00" arrival="25.00" arrivalLane="edge68874_1" arrivalPos="38.13" arrivalSpeed="11.28" duration="19.00" routeLength="116.16" waitingTime="0.00" waitingCount="0" stopTime="0.00" timeLoss="14.29" rerouteNo="0" devices="tripinfo_18949#2_8" vType="DEFAULT_VEHTYPE" speedFactor="1.03" vaporized=""/>
    <tripinfo id="33241#0_3484" depart="7.00" departLane="edge62474_1" departPos="5.10" departSpeed="0.00" departDelay="2.94" arrival="25.00" arrivalLane="edge204197_1" arrivalPos="82.98" arrivalSpeed="22.25" duration="18.00" routeLength="191.02" waitingTime="0.00" waitingCount="0" stopTime="0.00" timeLoss="8.68" rerouteNo="0" devices="tripinfo_33241#0_3484" vType="DEFAULT_VEHTYPE" speedFactor="1.13" vaporized=""/>
    <tripinfo id="19352#41_5343" depart="6.00" departLane="edge140820_1" departPos="5.10" departSpeed="0.00" departDelay="0.64" arrival="25.00" arrivalLane="edge89484_1" arrivalPos="83.15" arrivalSpeed="19.59" duration="19.00" routeLength="181.01" waitingTime="0.00" waitingCount="0" stopTime="0.00" timeLoss="11.99" rerouteNo="0" devices="tripinfo_19352#41_5343" vType="DEFAULT_VEHTYPE" speedFactor="1.14" vaporized=""/>
    <tripinfo id="71199#3_14201" depart="10.00" departLane="edge240789_1" departPos="5.10" departSpeed="0.00" departDelay="0.43" arrival="25.00" arrivalLane="edge240790_1" arrivalPos="19.27" arrivalSpeed="13.78" duration="15.00" routeLength="135.53" waitingTime="0.00" waitingCount="0" stopTime="0.00" timeLoss="9.63" rerouteNo="0" devices="tripinfo_71199#3_14201" vType="DEFAULT_VEHTYPE" speedFactor="0.89" vaporized=""/>
    <tripinfo id="87164#4_15710" depart="11.00" departLane="edge203633_1" departPos="5.10" departSpeed="0.00" departDelay="0.81" arrival="25.00" arrivalLane="edge85804_1" arrivalPos="18.85" arrivalSpeed="11.53" duration="14.00" routeLength="117.09" waitingTime="0.00" waitingCount="0" stopTime="0.00" timeLoss="9.99" rerouteNo="0" devices="tripinfo_87164#4_15710" vType="DEFAULT_VEHTYPE" speedFactor="0.79" vaporized=""/>
    <tripinfo id="31860#0_21855" depart="15.00" departLane="edge198299_1" departPos="5.10" departSpeed="0.00" departDelay="2.32" arrival="25.00" arrivalLane="edge250429_1" arrivalPos="59.25" arrivalSpeed="18.18" duration="10.00" routeLength="92.90" waitingTime="0.00" waitingCount="0" stopTime="0.00" timeLoss="4.14" rerouteNo="0" devices="tripinfo_31860#0_21855" vType="DEFAULT_VEHTYPE" speedFactor="0.94" vaporized=""/>
    <tripinfo id="31271#3_4648" depart="5.00" departLane="edge245910_1" departPos="1.28" departSpeed="0.00" departDelay="0.06" arrival="26.00" arrivalLane="edge218085_1" arrivalPos="61.95" arrivalSpeed="24.30" duration="21.00" routeLength="239.61" waitingTime="0.00" waitingCount="0" stopTime="0.00" timeLoss="15.75" rerouteNo="0" devices="tripinfo_31271#3_4648" vType="DEFAULT_VEHTYPE" speedFactor="0.92" vaporized=""/>
    <tripinfo id="29424#3_6261" depart="6.00" departLane="edge100521_1" departPos="5.10" departSpeed="0.00" departDelay="0.09" arrival="26.00" arrivalLane="edge6208_1" arrivalPos="66.00" arrivalSpeed="23.90" duration="20.00" routeLength="202.15" waitingTime="0.00" waitingCount="0" stopTime="0.00" timeLoss="10.78" rerouteNo="0" devices="tripinfo_29424#3_6261" vType="DEFAULT_VEHTYPE" speedFactor="1.03" vaporized=""/>
    <tripinfo id="71778#2_12057" depart="9.00" departLane="edge167014_1" departPos="5.10" departSpeed="0.00" departDelay="0.34" arrival="26.00" arrivalLane="edge11109_1" arrivalPos="188.55" arrivalSpeed="21.26" duration="17.00" routeLength="213.43" waitingTime="0.00" waitingCount="0" stopTime="0.00" timeLoss="5.88" rerouteNo="0" devices="tripinfo_71778#2_12057" vType="DEFAULT_VEHTYPE" speedFactor="1.12" vaporized=""/>
    <tripinfo id="32725#3_23993" depart="19.00" departLane="edge181241_1" departPos="5.10" departSpeed="0.00" departDelay="5.26" arrival="26.00" arrivalLane="edge128668_1" arrivalPos="0.28" arrivalSpeed="13.04" duration="7.00" routeLength="45.23" waitingTime="0.00" waitingCount="0" stopTime="0.00" timeLoss="5.28" rerouteNo="0" devices="tripinfo_32725#3_23993" vType="DEFAULT_VEHTYPE" speedFactor="1.01" vaporized=""/>
    <tripinfo id="32910#4_1100" depart="2.00" departLane="edge24003_1" departPos="5.10" departSpeed="0.00" departDelay="0.93" arrival="27.00" arrivalLane="edge250429_1" arrivalPos="59.25" arrivalSpeed="17.50" duration="25.00" routeLength="156.09" waitingTime="3.00" waitingCount="1" stopTime="0.00" timeLoss="14.30" rerouteNo="0" devices="tripinfo_32910#4_1100" vType="DEFAULT_VEHTYPE" speedFactor="0.91" vaporized=""/>
    <tripinfo id="87355#1_2272" depart="3.00" departLane="edge245939_1" departPos="5.10" departSpeed="0.00" departDelay="0.15" arrival="27.00" arrivalLane="edge222557_1" arrivalPos="48.66" arrivalSpeed="22.83" duration="24.00" routeLength="263.43" waitingTime="0.00" waitingCount="0" stopTime="0.00" timeLoss="14.34" rerouteNo="0" devices="tripinfo_87355#1_2272" vType="DEFAULT_VEHTYPE" speedFactor="0.97" vaporized=""/>
    <tripinfo id="13166#1_9707" depart="14.00" departLane="edge204240_1" departPos="5.10" departSpeed="0.00" departDelay="6.37" arrival="27.00" arrivalLane="edge50909_1" arrivalPos="28.75" arrivalSpeed="12.92" duration="13.00" routeLength="90.53" waitingTime="0.00" waitingCount="0" stopTime="0.00" timeLoss="8.83" rerouteNo="0" devices="tripinfo_13166#1_9707" vType="DEFAULT_VEHTYPE" speedFactor="0.95" vaporized=""/>
    <tripinfo id="20483#6_30460" depart="21.00" departLane="edge201639_1" departPos="4.03" departSpeed="0.00" departDelay="0.60" arrival="27.00" arrivalLane="edge201632_1" arrivalPos="23.72" arrivalSpeed="11.66" duration="6.00" routeLength="39.37" waitingTime="0.00" waitingCount="0" stopTime="0.00" timeLoss="5.27" rerouteNo="0" devices="tripinfo_20483#6_30460" vType="DEFAULT_VEHTYPE" speedFactor="1.08" vaporized=""/>
    <tripinfo id="19302#7_4076" depart="5.00" departLane="edge140821_1" departPos="5.10" departSpeed="0.00" departDelay="0.50" arrival="28.00" arrivalLane="edge89484_1" arrivalPos="83.15" arrivalSpeed="18.94" duration="23.00" routeLength="204.22" waitingTime="0.00" waitingCount="0" stopTime="0.00" timeLoss="12.50" rerouteNo="0" devices="tripinfo_19302#7_4076" vType="DEFAULT_VEHTYPE" speedFactor="1.01" vaporized=""/>
    <tripinfo id="19386#6_7654" depart="13.00" departLane="edge247192_1" departPos="5.10" departSpeed="0.00" departDelay="6.34" arrival="28.00" arrivalLane="edge63187_1" arrivalPos="19.90" arrivalSpeed="11.35" duration="15.00" routeLength="122.51" waitingTime="0.00" waitingCount="0" stopTime="0.00" timeLoss="9.94" rerouteNo="0" devices="tripinfo_19386#6_7654" vType="DEFAULT_VEHTYPE" speedFactor="1.11" vaporized=""/>
    <tripinfo id="31877#4_7672" depart="10.00" departLane="edge250424_1" departPos="5.10" departSpeed="0.00" departDelay="3.33" arrival="28.00" arrivalLane="edge250429_1" arrivalPos="59.25" arrivalSpeed="19.43" duration="18.00" routeLength="160.17" waitingTime="0.00" waitingCount="0" stopTime="0.00" timeLoss="10.47" rerouteNo="0" devices="tripinfo_31877#4_7672" vType="DEFAULT_VEHTYPE" speedFactor="1.09" vaporized=""/>
    <tripinfo id="27323#0_10827" depart="9.00" departLane="edge65724_1" departPos="5.10" departSpeed="0.00" departDelay="0.88" arrival="28.00" arrivalLane="edge127729_1" arrivalPos="19.37" arrivalSpeed="9.59" duration="19.00" routeLength="173.14" waitingTime="0.00" waitingCount="0" stopTime="0.00" timeLoss="10.78" rerouteNo="0" devices="tripinfo_27323#0_10827" vType="DEFAULT_VEHTYPE" speedFactor="1.25" vaporized=""/>
    <tripinfo id="38375#3_24261" depart="14.00" departLane="edge203633_1" departPos="5.10" departSpeed="0.00" departDelay="0.13" arrival="28.00" arrivalLane="edge85804_1" arrivalPos="18.85" arrivalSpeed="12.88" duration="14.00" routeLength="117.09" waitingTime="0.00" waitingCount="0" stopTime="0.00" timeLoss="10.87" rerouteNo="0" devices="tripinfo_38375#3_24261" vType="DEFAULT_VEHTYPE" speedFactor="1.12" vaporized=""/>
    <tripinfo id="32108#4_27171" depart="16.00" departLane="edge187638_1" departPos="5.10" departSpeed="0.00" departDelay="0.31" arrival="28.00" arrivalLane="edge255854_1" arrivalPos="24.53" arrivalSpeed="22.45" duration="12.00" routeLength="124.65" waitingTime="0.00" waitingCount="0" stopTime="0.00" timeLoss="5.70" rerouteNo="0" devices="tripinfo_32108#4_27171" vType="DEFAULT_VEHTYPE" speedFactor="1.14" vaporized=""/>
    <tripinfo id="25923#0_975" depart="9.00" departLane="edge205969_1" departPos="5.10" departSpeed="0.00" departDelay="8.20" arrival="29.00" arrivalLane="edge68874_1" arrivalPos="38.13" arrivalSpeed="12.97" duration="20.00" routeLength="116.16" waitingTime="0.00" waitingCount="0" stopTime="0.00" timeLoss="14.70" rerouteNo="0" devices="tripinfo_25923#0_975" vType="DEFAULT_VEHTYPE" speedFactor="1.06" vaporized=""/>
    <tripinfo id="32049#9_1508" depart="2.00" departLane="edge256562_1" departPos="5.10" departSpeed="0.00" departDelay="0.22" arrival="29.00" arrivalLane="edge255854_1" arrivalPos="24.53" arrivalSpeed="19.47" duration="27.00" routeLength="341.20" waitingTime="0.00" waitingCount="0" stopTime="0.00" timeLoss="9.30" rerouteNo="0" devices="tripinfo_32049#9_1508" vType="DEFAULT_VEHTYPE" speedFactor="0.98" vaporized=""/>
    <tripinfo id="2505#2_6066" depart="9.00" departLane="edge90738_1" departPos="5.10" departSpeed="0.00" departDelay="3.20" arrival="29.00" arrivalLane="edge85801_1" arrivalPos="78.46" arrivalSpeed="18.13" duration="20.00" routeLength="157.06" waitingTime="0.00" waitingCount="0" stopTime="0.00" timeLoss="13.03" rerouteNo="0" devices="tripinfo_2505#2_6066" vType="DEFAULT_VEHTYPE" speedFactor="0.83" vaporized=""/>
    <tripinfo id="34063#7_7808" depart="7.00" departLane="edge74205_1" departPos="5.10" departSpeed="0.00" departDelay="0.27" arrival="29.00" arrivalLane="edge210503_1" arrivalPos="8.70" arrivalSpeed="9.71" duration="22.00" routeLength="202.71" waitingTime="0.00" waitingCount="0" stopTime="0.00" timeLoss="16.36" rerouteNo="0" devices="tripinfo_34063#7_7808" vType="DEFAULT_VEHTYPE" speedFactor="1.02" vaporized=""/>